# nam4wpan #
c -t * -i 32 -n tomato
c -t * -i 33 -n green
c -t * -i 34 -n blue
c -t * -i 35 -n blue
c -t * -i 36 -n green4
c -t * -i 37 -n green4
c -t * -i 38 -n cyan4
c -t * -i 39 -n cyan4
n -t * -s 0  -x 26.608377307314001 -y 49.446991827566002 -Z 0 -z 2  -v circle -c green
n -t * -s 1  -x 49.337311778721002 -y 48.582820874924003 -Z 0 -z 2  -v circle -c green
n -t * -s 2  -x 27.437938215930998 -y 35.091658830424997 -Z 0 -z 2  -v circle -c green
n -t * -s 3  -x 10.568766842666999 -y 47.453389414657003 -Z 0 -z 2  -v circle -c green
n -t * -s 4  -x 29.496269526711 -y 9.2574501390449999 -Z 0 -z 2  -v circle -c green
n -t * -s 5  -x 26.476535726599 -y 41.646396828919997 -Z 0 -z 2  -v circle -c green
n -t * -s 6  -x 36.430596917301003 -y 30.320042376073001 -Z 0 -z 2  -v circle -c green
n -t * -s 7  -x 20.045665842363999 -y 32.537008965783002 -Z 0 -z 2  -v circle -c green
n -t * -s 8  -x 8.6410894657830006 -y 18.871428688348999 -Z 0 -z 2  -v circle -c green
n -t * -s 9  -x 50.125856848940998 -y 35.049644538277001 -Z 0 -z 2  -v circle -c green
n -t * -s 10  -x 50.596871605178002 -y 21.816174228621001 -Z 0 -z 2  -v circle -c green
n -t * -s 11  -x 8.8281975910679993 -y 34.402175912552998 -Z 0 -z 2  -v circle -c green
n -t * -s 12  -x 18.759762507870001 -y 25.069997591097 -Z 0 -z 2  -v circle -c green
n -t * -s 13  -x 13.277017351151001 -y 9.5221490093060002 -Z 0 -z 2  -v circle -c green
n -t * -s 14  -x 35.935083056449997 -y 45.156742480258004 -Z 0 -z 2  -v circle -c green
n -t * -s 15  -x 23.507724673396002 -y 9.5667728464789992 -Z 0 -z 2  -v circle -c green
n -t * -s 16  -x 20.236128396148001 -y 45.484419961171 -Z 0 -z 2  -v circle -c green
n -t * -s 17  -x 45.709636471608 -y 48.353113573381997 -Z 0 -z 2  -v circle -c green
n -t * -s 18  -x 45.610349971557 -y 49.787732692399999 -Z 0 -z 2  -v circle -c green
n -t * -s 19  -x 24.345058881159002 -y 19.614188426582 -Z 0 -z 2  -v circle -c green
n -t * -s 20  -x 35.972132273531003 -y 10.620805728045999 -Z 0 -z 2  -v circle -c green
n -t * -s 21  -x 41.626765649851002 -y 40.028905860150999 -Z 0 -z 2  -v circle -c green
n -t * -s 22  -x 8.914806804685 -y 24.094071765795 -Z 0 -z 2  -v circle -c green
n -t * -s 23  -x 28.443020411336001 -y 28.367299319337999 -Z 0 -z 2  -v circle -c green
n -t * -s 24  -x 35.102836431793001 -y 22.394995544608001 -Z 0 -z 2  -v circle -c green
V -t * -v 1.0a5 -a 0
W -t * -x 50 -y 50
A -t * -n 1 -p 0 -o 0x7fffffff -c 30 -a 1
A -t * -h 1 -m 1073741823 -s 0
v -t 0.000000000 -e set_rate_ext 0.2ms 1
n -t 0.000000000 -s 23 -S DLABEL -l "PAN Coor" -L ""
+ -t 0.000320000 -s 4 -d -1 -p CM7 -e 8 -c 2 -a 0 -i 0 -k MAC 
- -t 0.000320000 -s 4 -d -1 -p CM7 -e 8 -c 2 -a 0 -i 0 -k MAC
h -t 0.000320000 -s 4 -d -1 -p CM7 -e 8 -c 2 -a 0 -i 0 -k MAC -R 15.00 -D 0.00
+ -t 0.000640000 -s 8 -d -1 -p CM7 -e 8 -c 2 -a 0 -i 0 -k MAC 
- -t 0.000640000 -s 8 -d -1 -p CM7 -e 8 -c 2 -a 0 -i 0 -k MAC
h -t 0.000640000 -s 8 -d -1 -p CM7 -e 8 -c 2 -a 0 -i 0 -k MAC -R 15.00 -D 0.00
d -t 0.000768020 -s 15 -d -1 -p CM7 -e 8 -c 2 -a 0 -i 0 -k MAC
d -t 0.000768022 -s 20 -d -1 -p CM7 -e 8 -c 2 -a 0 -i 0 -k MAC
d -t 0.000768039 -s 19 -d -1 -p CM7 -e 8 -c 2 -a 0 -i 0 -k MAC
d -t 0.000768048 -s 24 -d -1 -p CM7 -e 8 -c 2 -a 0 -i 0 -k MAC
+ -t 0.000960000 -s 23 -d -1 -p CM7 -e 8 -c 2 -a 0 -i 0 -k MAC 
- -t 0.000960000 -s 23 -d -1 -p CM7 -e 8 -c 2 -a 0 -i 0 -k MAC
h -t 0.000960000 -s 23 -d -1 -p CM7 -e 8 -c 2 -a 0 -i 0 -k MAC -R 15.00 -D 0.00
+ -t 0.001088000 -s 19 -d -1 -p CM7 -e 8 -c 2 -a 0 -i 0 -k MAC 
- -t 0.001088000 -s 19 -d -1 -p CM7 -e 8 -c 2 -a 0 -i 0 -k MAC
h -t 0.001088000 -s 19 -d -1 -p CM7 -e 8 -c 2 -a 0 -i 0 -k MAC -R 15.00 -D 0.00
d -t 0.001088017 -s 22 -d -1 -p CM7 -e 8 -c 2 -a 0 -i 0 -k MAC
d -t 0.001088035 -s 13 -d -1 -p CM7 -e 8 -c 2 -a 0 -i 0 -k MAC
+ -t 0.001280000 -s 14 -d -1 -p CM7 -e 8 -c 2 -a 0 -i 0 -k MAC 
- -t 0.001280000 -s 14 -d -1 -p CM7 -e 8 -c 2 -a 0 -i 0 -k MAC
h -t 0.001280000 -s 14 -d -1 -p CM7 -e 8 -c 2 -a 0 -i 0 -k MAC -R 15.00 -D 0.00
+ -t 0.001280000 -s 18 -d -1 -p CM7 -e 8 -c 2 -a 0 -i 0 -k MAC 
- -t 0.001280000 -s 18 -d -1 -p CM7 -e 8 -c 2 -a 0 -i 0 -k MAC
h -t 0.001280000 -s 18 -d -1 -p CM7 -e 8 -c 2 -a 0 -i 0 -k MAC -R 15.00 -D 0.00
d -t 0.001408023 -s 2 -d -1 -p CM7 -e 8 -c 2 -a 0 -i 0 -k MAC
d -t 0.001408027 -s 6 -d -1 -p CM7 -e 8 -c 2 -a 0 -i 0 -k MAC
d -t 0.001408030 -s 24 -d -1 -p CM7 -e 8 -c 2 -a 0 -i 0 -k MAC
d -t 0.001408031 -s 7 -d -1 -p CM7 -e 8 -c 2 -a 0 -i 0 -k MAC
d -t 0.001536026 -s 12 -d -1 -p CM7 -e 8 -c 2 -a 0 -i 0 -k MAC
d -t 0.001536034 -s 15 -d -1 -p CM7 -e 8 -c 2 -a 0 -i 0 -k MAC
d -t 0.001536039 -s 4 -d -1 -p CM7 -e 8 -c 2 -a 0 -i 0 -k MAC
d -t 0.001536049 -s 20 -d -1 -p CM7 -e 8 -c 2 -a 0 -i 0 -k MAC
d -t 0.001536050 -s 13 -d -1 -p CM7 -e 8 -c 2 -a 0 -i 0 -k MAC
+ -t 0.001600000 -s 11 -d -1 -p CM7 -e 8 -c 2 -a 0 -i 0 -k MAC 
- -t 0.001600000 -s 11 -d -1 -p CM7 -e 8 -c 2 -a 0 -i 0 -k MAC
h -t 0.001600000 -s 11 -d -1 -p CM7 -e 8 -c 2 -a 0 -i 0 -k MAC -R 15.00 -D 0.00
d -t 0.001728005 -s 17 -d -1 -p CM7 -e 8 -c 2 -a 0 -i 0 -k MAC
d -t 0.001728013 -s 1 -d -1 -p CM7 -e 8 -c 2 -a 0 -i 0 -k MAC
d -t 0.001728026 -s 21 -d -1 -p CM7 -e 8 -c 2 -a 0 -i 0 -k MAC
d -t 0.001728034 -s 5 -d -1 -p CM7 -e 8 -c 2 -a 0 -i 0 -k MAC
d -t 0.001728034 -s 0 -d -1 -p CM7 -e 8 -c 2 -a 0 -i 0 -k MAC
+ -t 0.001920000 -s 9 -d -1 -p CM7 -e 8 -c 2 -a 0 -i 0 -k MAC 
- -t 0.001920000 -s 9 -d -1 -p CM7 -e 8 -c 2 -a 0 -i 0 -k MAC
h -t 0.001920000 -s 9 -d -1 -p CM7 -e 8 -c 2 -a 0 -i 0 -k MAC -R 15.00 -D 0.00
+ -t 0.001920000 -s 13 -d -1 -p CM7 -e 8 -c 2 -a 0 -i 0 -k MAC 
- -t 0.001920000 -s 13 -d -1 -p CM7 -e 8 -c 2 -a 0 -i 0 -k MAC
h -t 0.001920000 -s 13 -d -1 -p CM7 -e 8 -c 2 -a 0 -i 0 -k MAC -R 15.00 -D 0.00
d -t 0.002048034 -s 22 -d -1 -p CM7 -e 8 -c 2 -a 0 -i 0 -k MAC
d -t 0.002048038 -s 7 -d -1 -p CM7 -e 8 -c 2 -a 0 -i 0 -k MAC
d -t 0.002048044 -s 3 -d -1 -p CM7 -e 8 -c 2 -a 0 -i 0 -k MAC
d -t 0.002048045 -s 12 -d -1 -p CM7 -e 8 -c 2 -a 0 -i 0 -k MAC
+ -t 0.002240000 -s 0 -d -1 -p CM7 -e 8 -c 2 -a 0 -i 0 -k MAC 
- -t 0.002240000 -s 0 -d -1 -p CM7 -e 8 -c 2 -a 0 -i 0 -k MAC
h -t 0.002240000 -s 0 -d -1 -p CM7 -e 8 -c 2 -a 0 -i 0 -k MAC -R 15.00 -D 0.00
+ -t 0.002240000 -s 5 -d -1 -p CM7 -e 8 -c 2 -a 0 -i 0 -k MAC 
- -t 0.002240000 -s 5 -d -1 -p CM7 -e 8 -c 2 -a 0 -i 0 -k MAC
h -t 0.002240000 -s 5 -d -1 -p CM7 -e 8 -c 2 -a 0 -i 0 -k MAC -R 15.00 -D 0.00
+ -t 0.002240000 -s 16 -d -1 -p CM7 -e 8 -c 2 -a 0 -i 0 -k MAC 
- -t 0.002240000 -s 16 -d -1 -p CM7 -e 8 -c 2 -a 0 -i 0 -k MAC
h -t 0.002240000 -s 16 -d -1 -p CM7 -e 8 -c 2 -a 0 -i 0 -k MAC -R 15.00 -D 0.00
+ -t 0.002240000 -s 20 -d -1 -p CM7 -e 8 -c 2 -a 0 -i 0 -k MAC 
- -t 0.002240000 -s 20 -d -1 -p CM7 -e 8 -c 2 -a 0 -i 0 -k MAC
h -t 0.002240000 -s 20 -d -1 -p CM7 -e 8 -c 2 -a 0 -i 0 -k MAC -R 15.00 -D 0.00
d -t 0.002368033 -s 21 -d -1 -p CM7 -e 8 -c 2 -a 0 -i 0 -k MAC
d -t 0.002368034 -s 15 -d -1 -p CM7 -e 8 -c 2 -a 0 -i 0 -k MAC
d -t 0.002368035 -s 8 -d -1 -p CM7 -e 8 -c 2 -a 0 -i 0 -k MAC
d -t 0.002368044 -s 10 -d -1 -p CM7 -e 8 -c 2 -a 0 -i 0 -k MAC
d -t 0.002368045 -s 1 -d -1 -p CM7 -e 8 -c 2 -a 0 -i 0 -k MAC
d -t 0.002368047 -s 17 -d -1 -p CM7 -e 8 -c 2 -a 0 -i 0 -k MAC
d -t 0.002368048 -s 6 -d -1 -p CM7 -e 8 -c 2 -a 0 -i 0 -k MAC
+ -t 0.002560000 -s 22 -d -1 -p CM7 -e 8 -c 2 -a 0 -i 0 -k MAC 
- -t 0.002560000 -s 22 -d -1 -p CM7 -e 8 -c 2 -a 0 -i 0 -k MAC
h -t 0.002560000 -s 22 -d -1 -p CM7 -e 8 -c 2 -a 0 -i 0 -k MAC -R 15.00 -D 0.00
d -t 0.002688022 -s 4 -d -1 -p CM7 -e 8 -c 2 -a 0 -i 0 -k MAC
d -t 0.002688022 -s 2 -d -1 -p CM7 -e 8 -c 2 -a 0 -i 0 -k MAC
d -t 0.002688033 -s 3 -d -1 -p CM7 -e 8 -c 2 -a 0 -i 0 -k MAC
d -t 0.002688034 -s 14 -d -1 -p CM7 -e 8 -c 2 -a 0 -i 0 -k MAC
d -t 0.002688037 -s 7 -d -1 -p CM7 -e 8 -c 2 -a 0 -i 0 -k MAC
d -t 0.002688039 -s 24 -d -1 -p CM7 -e 8 -c 2 -a 0 -i 0 -k MAC
d -t 0.002688045 -s 23 -d -1 -p CM7 -e 8 -c 2 -a 0 -i 0 -k MAC
d -t 0.002688049 -s 19 -d -1 -p CM7 -e 8 -c 2 -a 0 -i 0 -k MAC
+ -t 0.003008000 -s 15 -d -1 -p CM7 -e 8 -c 2 -a 0 -i 0 -k MAC 
- -t 0.003008000 -s 15 -d -1 -p CM7 -e 8 -c 2 -a 0 -i 0 -k MAC
h -t 0.003008000 -s 15 -d -1 -p CM7 -e 8 -c 2 -a 0 -i 0 -k MAC -R 15.00 -D 0.00
+ -t 0.003008000 -s 2 -d -1 -p CM7 -e 8 -c 2 -a 0 -i 0 -k MAC 
- -t 0.003008000 -s 2 -d -1 -p CM7 -e 8 -c 2 -a 0 -i 0 -k MAC
h -t 0.003008000 -s 2 -d -1 -p CM7 -e 8 -c 2 -a 0 -i 0 -k MAC -R 15.00 -D 0.00
d -t 0.003008017 -s 8 -d -1 -p CM7 -e 8 -c 2 -a 0 -i 0 -k MAC
d -t 0.003008033 -s 12 -d -1 -p CM7 -e 8 -c 2 -a 0 -i 0 -k MAC
d -t 0.003008034 -s 11 -d -1 -p CM7 -e 8 -c 2 -a 0 -i 0 -k MAC
d -t 0.003456020 -s 4 -d -1 -p CM7 -e 8 -c 2 -a 0 -i 0 -k MAC
d -t 0.003456022 -s 5 -d -1 -p CM7 -e 8 -c 2 -a 0 -i 0 -k MAC
d -t 0.003456023 -s 23 -d -1 -p CM7 -e 8 -c 2 -a 0 -i 0 -k MAC
d -t 0.003456026 -s 7 -d -1 -p CM7 -e 8 -c 2 -a 0 -i 0 -k MAC
d -t 0.003456034 -s 19 -d -1 -p CM7 -e 8 -c 2 -a 0 -i 0 -k MAC
d -t 0.003456034 -s 6 -d -1 -p CM7 -e 8 -c 2 -a 0 -i 0 -k MAC
d -t 0.003456034 -s 13 -d -1 -p CM7 -e 8 -c 2 -a 0 -i 0 -k MAC
d -t 0.003456042 -s 20 -d -1 -p CM7 -e 8 -c 2 -a 0 -i 0 -k MAC
d -t 0.003456042 -s 16 -d -1 -p CM7 -e 8 -c 2 -a 0 -i 0 -k MAC
d -t 0.003456044 -s 14 -d -1 -p CM7 -e 8 -c 2 -a 0 -i 0 -k MAC
d -t 0.003456044 -s 12 -d -1 -p CM7 -e 8 -c 2 -a 0 -i 0 -k MAC
d -t 0.003456048 -s 0 -d -1 -p CM7 -e 8 -c 2 -a 0 -i 0 -k MAC
d -t 0.003456049 -s 24 -d -1 -p CM7 -e 8 -c 2 -a 0 -i 0 -k MAC
+ -t 0.003648000 -s 3 -d -1 -p CM7 -e 8 -c 2 -a 0 -i 0 -k MAC 
- -t 0.003648000 -s 3 -d -1 -p CM7 -e 8 -c 2 -a 0 -i 0 -k MAC
h -t 0.003648000 -s 3 -d -1 -p CM7 -e 8 -c 2 -a 0 -i 0 -k MAC -R 15.00 -D 0.00
+ -t 0.003968000 -s 17 -d -1 -p CM7 -e 8 -c 2 -a 0 -i 0 -k MAC 
- -t 0.003968000 -s 17 -d -1 -p CM7 -e 8 -c 2 -a 0 -i 0 -k MAC
h -t 0.003968000 -s 17 -d -1 -p CM7 -e 8 -c 2 -a 0 -i 0 -k MAC -R 15.00 -D 0.00
d -t 0.004096033 -s 16 -d -1 -p CM7 -e 8 -c 2 -a 0 -i 0 -k MAC
d -t 0.004096044 -s 11 -d -1 -p CM7 -e 8 -c 2 -a 0 -i 0 -k MAC
+ -t 0.004288000 -s 10 -d -1 -p CM7 -e 8 -c 2 -a 0 -i 0 -k MAC 
- -t 0.004288000 -s 10 -d -1 -p CM7 -e 8 -c 2 -a 0 -i 0 -k MAC
h -t 0.004288000 -s 10 -d -1 -p CM7 -e 8 -c 2 -a 0 -i 0 -k MAC -R 15.00 -D 0.00
d -t 0.004416005 -s 18 -d -1 -p CM7 -e 8 -c 2 -a 0 -i 0 -k MAC
d -t 0.004416012 -s 1 -d -1 -p CM7 -e 8 -c 2 -a 0 -i 0 -k MAC
d -t 0.004416031 -s 21 -d -1 -p CM7 -e 8 -c 2 -a 0 -i 0 -k MAC
d -t 0.004416034 -s 14 -d -1 -p CM7 -e 8 -c 2 -a 0 -i 0 -k MAC
d -t 0.004736044 -s 9 -d -1 -p CM7 -e 8 -c 2 -a 0 -i 0 -k MAC
+ -t 0.004928000 -s 12 -d -1 -p CM7 -e 8 -c 2 -a 0 -i 0 -k MAC 
- -t 0.004928000 -s 12 -d -1 -p CM7 -e 8 -c 2 -a 0 -i 0 -k MAC
h -t 0.004928000 -s 12 -d -1 -p CM7 -e 8 -c 2 -a 0 -i 0 -k MAC -R 15.00 -D 0.00
+ -t 0.005248000 -s 21 -d -1 -p CM7 -e 8 -c 2 -a 0 -i 0 -k MAC 
- -t 0.005248000 -s 21 -d -1 -p CM7 -e 8 -c 2 -a 0 -i 0 -k MAC
h -t 0.005248000 -s 21 -d -1 -p CM7 -e 8 -c 2 -a 0 -i 0 -k MAC -R 15.00 -D 0.00
+ -t 0.005376000 -s 6 -d -1 -p CM7 -e 8 -c 2 -a 0 -i 0 -k MAC 
- -t 0.005376000 -s 6 -d -1 -p CM7 -e 8 -c 2 -a 0 -i 0 -k MAC
h -t 0.005376000 -s 6 -d -1 -p CM7 -e 8 -c 2 -a 0 -i 0 -k MAC -R 15.00 -D 0.00
d -t 0.005376025 -s 7 -d -1 -p CM7 -e 8 -c 2 -a 0 -i 0 -k MAC
d -t 0.005376026 -s 19 -d -1 -p CM7 -e 8 -c 2 -a 0 -i 0 -k MAC
d -t 0.005376033 -s 22 -d -1 -p CM7 -e 8 -c 2 -a 0 -i 0 -k MAC
d -t 0.005376040 -s 8 -d -1 -p CM7 -e 8 -c 2 -a 0 -i 0 -k MAC
d -t 0.005376045 -s 11 -d -1 -p CM7 -e 8 -c 2 -a 0 -i 0 -k MAC
+ -t 0.005568000 -s 24 -d -1 -p CM7 -e 8 -c 2 -a 0 -i 0 -k MAC 
- -t 0.005568000 -s 24 -d -1 -p CM7 -e 8 -c 2 -a 0 -i 0 -k MAC
h -t 0.005568000 -s 24 -d -1 -p CM7 -e 8 -c 2 -a 0 -i 0 -k MAC -R 15.00 -D 0.00
d -t 0.005696026 -s 14 -d -1 -p CM7 -e 8 -c 2 -a 0 -i 0 -k MAC
d -t 0.005696031 -s 17 -d -1 -p CM7 -e 8 -c 2 -a 0 -i 0 -k MAC
d -t 0.005696033 -s 9 -d -1 -p CM7 -e 8 -c 2 -a 0 -i 0 -k MAC
d -t 0.005696035 -s 18 -d -1 -p CM7 -e 8 -c 2 -a 0 -i 0 -k MAC
d -t 0.005696038 -s 1 -d -1 -p CM7 -e 8 -c 2 -a 0 -i 0 -k MAC
d -t 0.005824027 -s 23 -d -1 -p CM7 -e 8 -c 2 -a 0 -i 0 -k MAC
d -t 0.005824034 -s 2 -d -1 -p CM7 -e 8 -c 2 -a 0 -i 0 -k MAC
d -t 0.006016037 -s 19 -d -1 -p CM7 -e 8 -c 2 -a 0 -i 0 -k MAC
d -t 0.006016039 -s 20 -d -1 -p CM7 -e 8 -c 2 -a 0 -i 0 -k MAC
d -t 0.006016048 -s 4 -d -1 -p CM7 -e 8 -c 2 -a 0 -i 0 -k MAC
+ -t 0.009216000 -s 7 -d -1 -p CM7 -e 8 -c 2 -a 0 -i 0 -k MAC 
- -t 0.009216000 -s 7 -d -1 -p CM7 -e 8 -c 2 -a 0 -i 0 -k MAC
h -t 0.009216000 -s 7 -d -1 -p CM7 -e 8 -c 2 -a 0 -i 0 -k MAC -R 15.00 -D 0.00
d -t 0.009664025 -s 12 -d -1 -p CM7 -e 8 -c 2 -a 0 -i 0 -k MAC
d -t 0.009664026 -s 2 -d -1 -p CM7 -e 8 -c 2 -a 0 -i 0 -k MAC
d -t 0.009664031 -s 23 -d -1 -p CM7 -e 8 -c 2 -a 0 -i 0 -k MAC
d -t 0.009664037 -s 5 -d -1 -p CM7 -e 8 -c 2 -a 0 -i 0 -k MAC
d -t 0.009664038 -s 11 -d -1 -p CM7 -e 8 -c 2 -a 0 -i 0 -k MAC
d -t 0.009664043 -s 16 -d -1 -p CM7 -e 8 -c 2 -a 0 -i 0 -k MAC
d -t 0.009664045 -s 19 -d -1 -p CM7 -e 8 -c 2 -a 0 -i 0 -k MAC
d -t 0.009664047 -s 22 -d -1 -p CM7 -e 8 -c 2 -a 0 -i 0 -k MAC
+ -t 0.012736000 -s 1 -d -1 -p CM7 -e 8 -c 2 -a 0 -i 0 -k MAC 
- -t 0.012736000 -s 1 -d -1 -p CM7 -e 8 -c 2 -a 0 -i 0 -k MAC
h -t 0.012736000 -s 1 -d -1 -p CM7 -e 8 -c 2 -a 0 -i 0 -k MAC -R 15.00 -D 0.00
d -t 0.013184012 -s 17 -d -1 -p CM7 -e 8 -c 2 -a 0 -i 0 -k MAC
d -t 0.013184013 -s 18 -d -1 -p CM7 -e 8 -c 2 -a 0 -i 0 -k MAC
d -t 0.013184038 -s 21 -d -1 -p CM7 -e 8 -c 2 -a 0 -i 0 -k MAC
d -t 0.013184045 -s 9 -d -1 -p CM7 -e 8 -c 2 -a 0 -i 0 -k MAC
d -t 0.013184046 -s 14 -d -1 -p CM7 -e 8 -c 2 -a 0 -i 0 -k MAC
+ -t 0.140480000 -s 23 -d -1 -p CM7 -e 8 -c 2 -a 0 -i 0 -k MAC 
- -t 0.140480000 -s 23 -d -1 -p CM7 -e 8 -c 2 -a 0 -i 0 -k MAC
h -t 0.140480000 -s 23 -d -1 -p CM7 -e 8 -c 2 -a 0 -i 0 -k MAC -R 15.00 -D 0.00
+ -t 0.263360000 -s 14 -d -1 -p CM7 -e 8 -c 2 -a 0 -i 0 -k MAC 
- -t 0.263360000 -s 14 -d -1 -p CM7 -e 8 -c 2 -a 0 -i 0 -k MAC
h -t 0.263360000 -s 14 -d -1 -p CM7 -e 8 -c 2 -a 0 -i 0 -k MAC -R 15.00 -D 0.00
+ -t 0.263360000 -s 4 -d -1 -p CM7 -e 8 -c 2 -a 0 -i 0 -k MAC 
- -t 0.263360000 -s 4 -d -1 -p CM7 -e 8 -c 2 -a 0 -i 0 -k MAC
h -t 0.263360000 -s 4 -d -1 -p CM7 -e 8 -c 2 -a 0 -i 0 -k MAC -R 15.00 -D 0.00
+ -t 0.263488000 -s 19 -d -1 -p CM7 -e 8 -c 2 -a 0 -i 0 -k MAC 
- -t 0.263488000 -s 19 -d -1 -p CM7 -e 8 -c 2 -a 0 -i 0 -k MAC
h -t 0.263488000 -s 19 -d -1 -p CM7 -e 8 -c 2 -a 0 -i 0 -k MAC -R 15.00 -D 0.00
d -t 0.263808036 -s 18 -d -1 -p CM7 -e 8 -c 2 -a 0 -i 0 -k MAC
d -t 0.263936032 -s 23 -d -1 -p CM7 -e 8 -c 2 -a 0 -i 0 -k MAC
+ -t 0.264320000 -s 11 -d -1 -p CM7 -e 8 -c 2 -a 0 -i 0 -k MAC 
- -t 0.264320000 -s 11 -d -1 -p CM7 -e 8 -c 2 -a 0 -i 0 -k MAC
h -t 0.264320000 -s 11 -d -1 -p CM7 -e 8 -c 2 -a 0 -i 0 -k MAC -R 15.00 -D 0.00
+ -t 0.264640000 -s 8 -d -1 -p CM7 -e 8 -c 2 -a 0 -i 0 -k MAC 
- -t 0.264640000 -s 8 -d -1 -p CM7 -e 8 -c 2 -a 0 -i 0 -k MAC
h -t 0.264640000 -s 8 -d -1 -p CM7 -e 8 -c 2 -a 0 -i 0 -k MAC -R 15.00 -D 0.00
+ -t 0.265088000 -s 2 -d -1 -p CM7 -e 8 -c 2 -a 0 -i 0 -k MAC 
- -t 0.265088000 -s 2 -d -1 -p CM7 -e 8 -c 2 -a 0 -i 0 -k MAC
h -t 0.265088000 -s 2 -d -1 -p CM7 -e 8 -c 2 -a 0 -i 0 -k MAC -R 15.00 -D 0.00
d -t 0.265088017 -s 22 -d -1 -p CM7 -e 8 -c 2 -a 0 -i 0 -k MAC
d -t 0.265088035 -s 13 -d -1 -p CM7 -e 8 -c 2 -a 0 -i 0 -k MAC
+ -t 0.265280000 -s 18 -d -1 -p CM7 -e 8 -c 2 -a 0 -i 0 -k MAC 
- -t 0.265280000 -s 18 -d -1 -p CM7 -e 8 -c 2 -a 0 -i 0 -k MAC
h -t 0.265280000 -s 18 -d -1 -p CM7 -e 8 -c 2 -a 0 -i 0 -k MAC -R 15.00 -D 0.00
+ -t 0.265280000 -s 0 -d -1 -p CM7 -e 8 -c 2 -a 0 -i 0 -k MAC 
- -t 0.265280000 -s 0 -d -1 -p CM7 -e 8 -c 2 -a 0 -i 0 -k MAC
h -t 0.265280000 -s 0 -d -1 -p CM7 -e 8 -c 2 -a 0 -i 0 -k MAC -R 15.00 -D 0.00
d -t 0.265536022 -s 5 -d -1 -p CM7 -e 8 -c 2 -a 0 -i 0 -k MAC
d -t 0.265536023 -s 23 -d -1 -p CM7 -e 8 -c 2 -a 0 -i 0 -k MAC
d -t 0.265728025 -s 16 -d -1 -p CM7 -e 8 -c 2 -a 0 -i 0 -k MAC
d -t 0.265728034 -s 14 -d -1 -p CM7 -e 8 -c 2 -a 0 -i 0 -k MAC
+ -t 0.266240000 -s 16 -d -1 -p CM7 -e 8 -c 2 -a 0 -i 0 -k MAC 
- -t 0.266240000 -s 16 -d -1 -p CM7 -e 8 -c 2 -a 0 -i 0 -k MAC
h -t 0.266240000 -s 16 -d -1 -p CM7 -e 8 -c 2 -a 0 -i 0 -k MAC -R 15.00 -D 0.00
+ -t 0.266240000 -s 9 -d -1 -p CM7 -e 8 -c 2 -a 0 -i 0 -k MAC 
- -t 0.266240000 -s 9 -d -1 -p CM7 -e 8 -c 2 -a 0 -i 0 -k MAC
h -t 0.266240000 -s 9 -d -1 -p CM7 -e 8 -c 2 -a 0 -i 0 -k MAC -R 15.00 -D 0.00
+ -t 0.266240000 -s 13 -d -1 -p CM7 -e 8 -c 2 -a 0 -i 0 -k MAC 
- -t 0.266240000 -s 13 -d -1 -p CM7 -e 8 -c 2 -a 0 -i 0 -k MAC
h -t 0.266240000 -s 13 -d -1 -p CM7 -e 8 -c 2 -a 0 -i 0 -k MAC -R 15.00 -D 0.00
+ -t 0.266560000 -s 20 -d -1 -p CM7 -e 8 -c 2 -a 0 -i 0 -k MAC 
- -t 0.266560000 -s 20 -d -1 -p CM7 -e 8 -c 2 -a 0 -i 0 -k MAC
h -t 0.266560000 -s 20 -d -1 -p CM7 -e 8 -c 2 -a 0 -i 0 -k MAC -R 15.00 -D 0.00
d -t 0.266688024 -s 5 -d -1 -p CM7 -e 8 -c 2 -a 0 -i 0 -k MAC
d -t 0.266688025 -s 0 -d -1 -p CM7 -e 8 -c 2 -a 0 -i 0 -k MAC
d -t 0.266688033 -s 3 -d -1 -p CM7 -e 8 -c 2 -a 0 -i 0 -k MAC
d -t 0.266688034 -s 15 -d -1 -p CM7 -e 8 -c 2 -a 0 -i 0 -k MAC
d -t 0.266688035 -s 8 -d -1 -p CM7 -e 8 -c 2 -a 0 -i 0 -k MAC
d -t 0.266688042 -s 2 -d -1 -p CM7 -e 8 -c 2 -a 0 -i 0 -k MAC
d -t 0.266688044 -s 10 -d -1 -p CM7 -e 8 -c 2 -a 0 -i 0 -k MAC
d -t 0.266688047 -s 17 -d -1 -p CM7 -e 8 -c 2 -a 0 -i 0 -k MAC
+ -t 0.266880000 -s 22 -d -1 -p CM7 -e 8 -c 2 -a 0 -i 0 -k MAC 
- -t 0.266880000 -s 22 -d -1 -p CM7 -e 8 -c 2 -a 0 -i 0 -k MAC
h -t 0.266880000 -s 22 -d -1 -p CM7 -e 8 -c 2 -a 0 -i 0 -k MAC -R 15.00 -D 0.00
+ -t 0.267008000 -s 17 -d -1 -p CM7 -e 8 -c 2 -a 0 -i 0 -k MAC 
- -t 0.267008000 -s 17 -d -1 -p CM7 -e 8 -c 2 -a 0 -i 0 -k MAC
h -t 0.267008000 -s 17 -d -1 -p CM7 -e 8 -c 2 -a 0 -i 0 -k MAC -R 15.00 -D 0.00
d -t 0.267008022 -s 4 -d -1 -p CM7 -e 8 -c 2 -a 0 -i 0 -k MAC
d -t 0.267008049 -s 19 -d -1 -p CM7 -e 8 -c 2 -a 0 -i 0 -k MAC
d -t 0.267328017 -s 8 -d -1 -p CM7 -e 8 -c 2 -a 0 -i 0 -k MAC
d -t 0.267328033 -s 12 -d -1 -p CM7 -e 8 -c 2 -a 0 -i 0 -k MAC
d -t 0.267328034 -s 11 -d -1 -p CM7 -e 8 -c 2 -a 0 -i 0 -k MAC
d -t 0.267456005 -s 18 -d -1 -p CM7 -e 8 -c 2 -a 0 -i 0 -k MAC
d -t 0.267456031 -s 21 -d -1 -p CM7 -e 8 -c 2 -a 0 -i 0 -k MAC
d -t 0.267456034 -s 14 -d -1 -p CM7 -e 8 -c 2 -a 0 -i 0 -k MAC
d -t 0.267456047 -s 9 -d -1 -p CM7 -e 8 -c 2 -a 0 -i 0 -k MAC
+ -t 0.267648000 -s 3 -d -1 -p CM7 -e 8 -c 2 -a 0 -i 0 -k MAC 
- -t 0.267648000 -s 3 -d -1 -p CM7 -e 8 -c 2 -a 0 -i 0 -k MAC
h -t 0.267648000 -s 3 -d -1 -p CM7 -e 8 -c 2 -a 0 -i 0 -k MAC -R 15.00 -D 0.00
d -t 0.268096033 -s 16 -d -1 -p CM7 -e 8 -c 2 -a 0 -i 0 -k MAC
d -t 0.268096044 -s 11 -d -1 -p CM7 -e 8 -c 2 -a 0 -i 0 -k MAC
+ -t 0.268416000 -s 6 -d -1 -p CM7 -e 8 -c 2 -a 0 -i 0 -k MAC 
- -t 0.268416000 -s 6 -d -1 -p CM7 -e 8 -c 2 -a 0 -i 0 -k MAC
h -t 0.268416000 -s 6 -d -1 -p CM7 -e 8 -c 2 -a 0 -i 0 -k MAC -R 15.00 -D 0.00
+ -t 0.268608000 -s 10 -d -1 -p CM7 -e 8 -c 2 -a 0 -i 0 -k MAC 
- -t 0.268608000 -s 10 -d -1 -p CM7 -e 8 -c 2 -a 0 -i 0 -k MAC
h -t 0.268608000 -s 10 -d -1 -p CM7 -e 8 -c 2 -a 0 -i 0 -k MAC -R 15.00 -D 0.00
+ -t 0.268608000 -s 12 -d -1 -p CM7 -e 8 -c 2 -a 0 -i 0 -k MAC 
- -t 0.268608000 -s 12 -d -1 -p CM7 -e 8 -c 2 -a 0 -i 0 -k MAC
h -t 0.268608000 -s 12 -d -1 -p CM7 -e 8 -c 2 -a 0 -i 0 -k MAC -R 15.00 -D 0.00
+ -t 0.268608000 -s 21 -d -1 -p CM7 -e 8 -c 2 -a 0 -i 0 -k MAC 
- -t 0.268608000 -s 21 -d -1 -p CM7 -e 8 -c 2 -a 0 -i 0 -k MAC
h -t 0.268608000 -s 21 -d -1 -p CM7 -e 8 -c 2 -a 0 -i 0 -k MAC -R 15.00 -D 0.00
d -t 0.268864027 -s 24 -d -1 -p CM7 -e 8 -c 2 -a 0 -i 0 -k MAC
d -t 0.268864027 -s 23 -d -1 -p CM7 -e 8 -c 2 -a 0 -i 0 -k MAC
d -t 0.268864034 -s 2 -d -1 -p CM7 -e 8 -c 2 -a 0 -i 0 -k MAC
d -t 0.269056026 -s 14 -d -1 -p CM7 -e 8 -c 2 -a 0 -i 0 -k MAC
d -t 0.269056026 -s 19 -d -1 -p CM7 -e 8 -c 2 -a 0 -i 0 -k MAC
d -t 0.269056031 -s 17 -d -1 -p CM7 -e 8 -c 2 -a 0 -i 0 -k MAC
d -t 0.269056033 -s 9 -d -1 -p CM7 -e 8 -c 2 -a 0 -i 0 -k MAC
d -t 0.269056033 -s 22 -d -1 -p CM7 -e 8 -c 2 -a 0 -i 0 -k MAC
d -t 0.269056035 -s 18 -d -1 -p CM7 -e 8 -c 2 -a 0 -i 0 -k MAC
d -t 0.269056040 -s 8 -d -1 -p CM7 -e 8 -c 2 -a 0 -i 0 -k MAC
d -t 0.269056045 -s 11 -d -1 -p CM7 -e 8 -c 2 -a 0 -i 0 -k MAC
+ -t 0.269184000 -s 15 -d -1 -p CM7 -e 8 -c 2 -a 0 -i 0 -k MAC 
- -t 0.269184000 -s 15 -d -1 -p CM7 -e 8 -c 2 -a 0 -i 0 -k MAC
h -t 0.269184000 -s 15 -d -1 -p CM7 -e 8 -c 2 -a 0 -i 0 -k MAC -R 15.00 -D 0.00
d -t 0.269632020 -s 4 -d -1 -p CM7 -e 8 -c 2 -a 0 -i 0 -k MAC
d -t 0.269632034 -s 19 -d -1 -p CM7 -e 8 -c 2 -a 0 -i 0 -k MAC
d -t 0.269632034 -s 13 -d -1 -p CM7 -e 8 -c 2 -a 0 -i 0 -k MAC
d -t 0.269632042 -s 20 -d -1 -p CM7 -e 8 -c 2 -a 0 -i 0 -k MAC
+ -t 0.269888000 -s 5 -d -1 -p CM7 -e 8 -c 2 -a 0 -i 0 -k MAC 
- -t 0.269888000 -s 5 -d -1 -p CM7 -e 8 -c 2 -a 0 -i 0 -k MAC
h -t 0.269888000 -s 5 -d -1 -p CM7 -e 8 -c 2 -a 0 -i 0 -k MAC -R 15.00 -D 0.00
+ -t 0.270336000 -s 24 -d -1 -p CM7 -e 8 -c 2 -a 0 -i 0 -k MAC 
- -t 0.270336000 -s 24 -d -1 -p CM7 -e 8 -c 2 -a 0 -i 0 -k MAC
h -t 0.270336000 -s 24 -d -1 -p CM7 -e 8 -c 2 -a 0 -i 0 -k MAC -R 15.00 -D 0.00
d -t 0.270336022 -s 2 -d -1 -p CM7 -e 8 -c 2 -a 0 -i 0 -k MAC
d -t 0.270336024 -s 16 -d -1 -p CM7 -e 8 -c 2 -a 0 -i 0 -k MAC
d -t 0.270336026 -s 0 -d -1 -p CM7 -e 8 -c 2 -a 0 -i 0 -k MAC
d -t 0.270336034 -s 14 -d -1 -p CM7 -e 8 -c 2 -a 0 -i 0 -k MAC
d -t 0.270784027 -s 6 -d -1 -p CM7 -e 8 -c 2 -a 0 -i 0 -k MAC
d -t 0.270784030 -s 23 -d -1 -p CM7 -e 8 -c 2 -a 0 -i 0 -k MAC
d -t 0.270784037 -s 19 -d -1 -p CM7 -e 8 -c 2 -a 0 -i 0 -k MAC
d -t 0.270784039 -s 20 -d -1 -p CM7 -e 8 -c 2 -a 0 -i 0 -k MAC
d -t 0.270784048 -s 4 -d -1 -p CM7 -e 8 -c 2 -a 0 -i 0 -k MAC
d -t 0.270784049 -s 2 -d -1 -p CM7 -e 8 -c 2 -a 0 -i 0 -k MAC
+ -t 0.273536000 -s 7 -d -1 -p CM7 -e 8 -c 2 -a 0 -i 0 -k MAC 
- -t 0.273536000 -s 7 -d -1 -p CM7 -e 8 -c 2 -a 0 -i 0 -k MAC
h -t 0.273536000 -s 7 -d -1 -p CM7 -e 8 -c 2 -a 0 -i 0 -k MAC -R 15.00 -D 0.00
d -t 0.273984025 -s 12 -d -1 -p CM7 -e 8 -c 2 -a 0 -i 0 -k MAC
d -t 0.273984026 -s 2 -d -1 -p CM7 -e 8 -c 2 -a 0 -i 0 -k MAC
d -t 0.273984031 -s 23 -d -1 -p CM7 -e 8 -c 2 -a 0 -i 0 -k MAC
d -t 0.273984037 -s 5 -d -1 -p CM7 -e 8 -c 2 -a 0 -i 0 -k MAC
d -t 0.273984038 -s 11 -d -1 -p CM7 -e 8 -c 2 -a 0 -i 0 -k MAC
d -t 0.273984043 -s 16 -d -1 -p CM7 -e 8 -c 2 -a 0 -i 0 -k MAC
d -t 0.273984045 -s 19 -d -1 -p CM7 -e 8 -c 2 -a 0 -i 0 -k MAC
d -t 0.273984047 -s 22 -d -1 -p CM7 -e 8 -c 2 -a 0 -i 0 -k MAC
+ -t 0.275776000 -s 1 -d -1 -p CM7 -e 8 -c 2 -a 0 -i 0 -k MAC 
- -t 0.275776000 -s 1 -d -1 -p CM7 -e 8 -c 2 -a 0 -i 0 -k MAC
h -t 0.275776000 -s 1 -d -1 -p CM7 -e 8 -c 2 -a 0 -i 0 -k MAC -R 15.00 -D 0.00
d -t 0.276224012 -s 17 -d -1 -p CM7 -e 8 -c 2 -a 0 -i 0 -k MAC
d -t 0.276224013 -s 18 -d -1 -p CM7 -e 8 -c 2 -a 0 -i 0 -k MAC
d -t 0.276224038 -s 21 -d -1 -p CM7 -e 8 -c 2 -a 0 -i 0 -k MAC
d -t 0.276224045 -s 9 -d -1 -p CM7 -e 8 -c 2 -a 0 -i 0 -k MAC
d -t 0.276224046 -s 14 -d -1 -p CM7 -e 8 -c 2 -a 0 -i 0 -k MAC
+ -t 0.279680000 -s 23 -d -1 -p CM7 -e 8 -c 2 -a 0 -i 0 -k MAC 
- -t 0.279680000 -s 23 -d -1 -p CM7 -e 8 -c 2 -a 0 -i 0 -k MAC
h -t 0.279680000 -s 23 -d -1 -p CM7 -e 8 -c 2 -a 0 -i 0 -k MAC -R 15.00 -D 0.00
+ -t 0.418752000 -s 23 -d -1 -p BCN -e 12 -c 2 -a 0 -i 0 -k MAC 
- -t 0.418752000 -s 23 -d -1 -p BCN -e 12 -c 2 -a 0 -i 0 -k MAC
h -t 0.418752000 -s 23 -d -1 -p BCN -e 12 -c 2 -a 0 -i 0 -k MAC -R 15.00 -D 0.00
+ -t 0.525440000 -s 14 -d -1 -p CM7 -e 8 -c 2 -a 0 -i 0 -k MAC 
- -t 0.525440000 -s 14 -d -1 -p CM7 -e 8 -c 2 -a 0 -i 0 -k MAC
h -t 0.525440000 -s 14 -d -1 -p CM7 -e 8 -c 2 -a 0 -i 0 -k MAC -R 15.00 -D 0.00
+ -t 0.527168000 -s 19 -d -1 -p CM7 -e 8 -c 2 -a 0 -i 0 -k MAC 
- -t 0.527168000 -s 19 -d -1 -p CM7 -e 8 -c 2 -a 0 -i 0 -k MAC
h -t 0.527168000 -s 19 -d -1 -p CM7 -e 8 -c 2 -a 0 -i 0 -k MAC -R 15.00 -D 0.00
d -t 0.527616039 -s 4 -d -1 -p CM7 -e 8 -c 2 -a 0 -i 0 -k MAC
+ -t 0.527808000 -s 2 -d -1 -p CM7 -e 8 -c 2 -a 0 -i 0 -k MAC 
- -t 0.527808000 -s 2 -d -1 -p CM7 -e 8 -c 2 -a 0 -i 0 -k MAC
h -t 0.527808000 -s 2 -d -1 -p CM7 -e 8 -c 2 -a 0 -i 0 -k MAC -R 15.00 -D 0.00
+ -t 0.528000000 -s 18 -d -1 -p CM7 -e 8 -c 2 -a 0 -i 0 -k MAC 
- -t 0.528000000 -s 18 -d -1 -p CM7 -e 8 -c 2 -a 0 -i 0 -k MAC
h -t 0.528000000 -s 18 -d -1 -p CM7 -e 8 -c 2 -a 0 -i 0 -k MAC -R 15.00 -D 0.00
d -t 0.528256048 -s 0 -d -1 -p CM7 -e 8 -c 2 -a 0 -i 0 -k MAC
d -t 0.528448036 -s 14 -d -1 -p CM7 -e 8 -c 2 -a 0 -i 0 -k MAC
+ -t 0.528640000 -s 11 -d -1 -p CM7 -e 8 -c 2 -a 0 -i 0 -k MAC 
- -t 0.528640000 -s 11 -d -1 -p CM7 -e 8 -c 2 -a 0 -i 0 -k MAC
h -t 0.528640000 -s 11 -d -1 -p CM7 -e 8 -c 2 -a 0 -i 0 -k MAC -R 15.00 -D 0.00
+ -t 0.528640000 -s 8 -d -1 -p CM7 -e 8 -c 2 -a 0 -i 0 -k MAC 
- -t 0.528640000 -s 8 -d -1 -p CM7 -e 8 -c 2 -a 0 -i 0 -k MAC
h -t 0.528640000 -s 8 -d -1 -p CM7 -e 8 -c 2 -a 0 -i 0 -k MAC -R 15.00 -D 0.00
+ -t 0.529088000 -s 0 -d -1 -p CM7 -e 8 -c 2 -a 0 -i 0 -k MAC 
- -t 0.529088000 -s 0 -d -1 -p CM7 -e 8 -c 2 -a 0 -i 0 -k MAC
h -t 0.529088000 -s 0 -d -1 -p CM7 -e 8 -c 2 -a 0 -i 0 -k MAC -R 15.00 -D 0.00
d -t 0.529088017 -s 22 -d -1 -p CM7 -e 8 -c 2 -a 0 -i 0 -k MAC
d -t 0.529088035 -s 13 -d -1 -p CM7 -e 8 -c 2 -a 0 -i 0 -k MAC
+ -t 0.529280000 -s 9 -d -1 -p CM7 -e 8 -c 2 -a 0 -i 0 -k MAC 
- -t 0.529280000 -s 9 -d -1 -p CM7 -e 8 -c 2 -a 0 -i 0 -k MAC
h -t 0.529280000 -s 9 -d -1 -p CM7 -e 8 -c 2 -a 0 -i 0 -k MAC -R 15.00 -D 0.00
+ -t 0.529408000 -s 4 -d -1 -p CM7 -e 8 -c 2 -a 0 -i 0 -k MAC 
- -t 0.529408000 -s 4 -d -1 -p CM7 -e 8 -c 2 -a 0 -i 0 -k MAC
h -t 0.529408000 -s 4 -d -1 -p CM7 -e 8 -c 2 -a 0 -i 0 -k MAC -R 15.00 -D 0.00
d -t 0.529536025 -s 16 -d -1 -p CM7 -e 8 -c 2 -a 0 -i 0 -k MAC
d -t 0.529536034 -s 14 -d -1 -p CM7 -e 8 -c 2 -a 0 -i 0 -k MAC
d -t 0.529536048 -s 2 -d -1 -p CM7 -e 8 -c 2 -a 0 -i 0 -k MAC
+ -t 0.529600000 -s 22 -d -1 -p CM7 -e 8 -c 2 -a 0 -i 0 -k MAC 
- -t 0.529600000 -s 22 -d -1 -p CM7 -e 8 -c 2 -a 0 -i 0 -k MAC
h -t 0.529600000 -s 22 -d -1 -p CM7 -e 8 -c 2 -a 0 -i 0 -k MAC -R 15.00 -D 0.00
d -t 0.529728047 -s 17 -d -1 -p CM7 -e 8 -c 2 -a 0 -i 0 -k MAC
d -t 0.529856022 -s 20 -d -1 -p CM7 -e 8 -c 2 -a 0 -i 0 -k MAC
d -t 0.529856039 -s 19 -d -1 -p CM7 -e 8 -c 2 -a 0 -i 0 -k MAC
+ -t 0.530048000 -s 3 -d -1 -p CM7 -e 8 -c 2 -a 0 -i 0 -k MAC 
- -t 0.530048000 -s 3 -d -1 -p CM7 -e 8 -c 2 -a 0 -i 0 -k MAC
h -t 0.530048000 -s 3 -d -1 -p CM7 -e 8 -c 2 -a 0 -i 0 -k MAC -R 15.00 -D 0.00
d -t 0.530048017 -s 8 -d -1 -p CM7 -e 8 -c 2 -a 0 -i 0 -k MAC
d -t 0.530048034 -s 11 -d -1 -p CM7 -e 8 -c 2 -a 0 -i 0 -k MAC
+ -t 0.530240000 -s 20 -d -1 -p CM7 -e 8 -c 2 -a 0 -i 0 -k MAC 
- -t 0.530240000 -s 20 -d -1 -p CM7 -e 8 -c 2 -a 0 -i 0 -k MAC
h -t 0.530240000 -s 20 -d -1 -p CM7 -e 8 -c 2 -a 0 -i 0 -k MAC -R 15.00 -D 0.00
+ -t 0.530496000 -s 6 -d -1 -p CM7 -e 8 -c 2 -a 0 -i 0 -k MAC 
- -t 0.530496000 -s 6 -d -1 -p CM7 -e 8 -c 2 -a 0 -i 0 -k MAC
h -t 0.530496000 -s 6 -d -1 -p CM7 -e 8 -c 2 -a 0 -i 0 -k MAC -R 15.00 -D 0.00
d -t 0.530496033 -s 16 -d -1 -p CM7 -e 8 -c 2 -a 0 -i 0 -k MAC
d -t 0.530496044 -s 11 -d -1 -p CM7 -e 8 -c 2 -a 0 -i 0 -k MAC
d -t 0.530688022 -s 4 -d -1 -p CM7 -e 8 -c 2 -a 0 -i 0 -k MAC
d -t 0.530688049 -s 19 -d -1 -p CM7 -e 8 -c 2 -a 0 -i 0 -k MAC
d -t 0.530944034 -s 2 -d -1 -p CM7 -e 8 -c 2 -a 0 -i 0 -k MAC
d -t 0.530944037 -s 21 -d -1 -p CM7 -e 8 -c 2 -a 0 -i 0 -k MAC
d -t 0.530944048 -s 9 -d -1 -p CM7 -e 8 -c 2 -a 0 -i 0 -k MAC
d -t 0.530944049 -s 14 -d -1 -p CM7 -e 8 -c 2 -a 0 -i 0 -k MAC
+ -t 0.531328000 -s 17 -d -1 -p CM7 -e 8 -c 2 -a 0 -i 0 -k MAC 
- -t 0.531328000 -s 17 -d -1 -p CM7 -e 8 -c 2 -a 0 -i 0 -k MAC
h -t 0.531328000 -s 17 -d -1 -p CM7 -e 8 -c 2 -a 0 -i 0 -k MAC -R 15.00 -D 0.00
+ -t 0.531648000 -s 16 -d -1 -p CM7 -e 8 -c 2 -a 0 -i 0 -k MAC 
- -t 0.531648000 -s 16 -d -1 -p CM7 -e 8 -c 2 -a 0 -i 0 -k MAC
h -t 0.531648000 -s 16 -d -1 -p CM7 -e 8 -c 2 -a 0 -i 0 -k MAC -R 15.00 -D 0.00
d -t 0.531776005 -s 18 -d -1 -p CM7 -e 8 -c 2 -a 0 -i 0 -k MAC
d -t 0.531776031 -s 21 -d -1 -p CM7 -e 8 -c 2 -a 0 -i 0 -k MAC
d -t 0.531776034 -s 14 -d -1 -p CM7 -e 8 -c 2 -a 0 -i 0 -k MAC
d -t 0.531776047 -s 9 -d -1 -p CM7 -e 8 -c 2 -a 0 -i 0 -k MAC
+ -t 0.531968000 -s 10 -d -1 -p CM7 -e 8 -c 2 -a 0 -i 0 -k MAC 
- -t 0.531968000 -s 10 -d -1 -p CM7 -e 8 -c 2 -a 0 -i 0 -k MAC
h -t 0.531968000 -s 10 -d -1 -p CM7 -e 8 -c 2 -a 0 -i 0 -k MAC -R 15.00 -D 0.00
d -t 0.532096024 -s 5 -d -1 -p CM7 -e 8 -c 2 -a 0 -i 0 -k MAC
d -t 0.532096025 -s 0 -d -1 -p CM7 -e 8 -c 2 -a 0 -i 0 -k MAC
d -t 0.532096033 -s 3 -d -1 -p CM7 -e 8 -c 2 -a 0 -i 0 -k MAC
d -t 0.532096042 -s 2 -d -1 -p CM7 -e 8 -c 2 -a 0 -i 0 -k MAC
d -t 0.532416044 -s 9 -d -1 -p CM7 -e 8 -c 2 -a 0 -i 0 -k MAC
+ -t 0.532608000 -s 12 -d -1 -p CM7 -e 8 -c 2 -a 0 -i 0 -k MAC 
- -t 0.532608000 -s 12 -d -1 -p CM7 -e 8 -c 2 -a 0 -i 0 -k MAC
h -t 0.532608000 -s 12 -d -1 -p CM7 -e 8 -c 2 -a 0 -i 0 -k MAC -R 15.00 -D 0.00
+ -t 0.532864000 -s 15 -d -1 -p CM7 -e 8 -c 2 -a 0 -i 0 -k MAC 
- -t 0.532864000 -s 15 -d -1 -p CM7 -e 8 -c 2 -a 0 -i 0 -k MAC
h -t 0.532864000 -s 15 -d -1 -p CM7 -e 8 -c 2 -a 0 -i 0 -k MAC -R 15.00 -D 0.00
d -t 0.533056026 -s 19 -d -1 -p CM7 -e 8 -c 2 -a 0 -i 0 -k MAC
d -t 0.533056033 -s 22 -d -1 -p CM7 -e 8 -c 2 -a 0 -i 0 -k MAC
d -t 0.533056040 -s 8 -d -1 -p CM7 -e 8 -c 2 -a 0 -i 0 -k MAC
d -t 0.533056044 -s 2 -d -1 -p CM7 -e 8 -c 2 -a 0 -i 0 -k MAC
d -t 0.533056045 -s 11 -d -1 -p CM7 -e 8 -c 2 -a 0 -i 0 -k MAC
d -t 0.533312020 -s 4 -d -1 -p CM7 -e 8 -c 2 -a 0 -i 0 -k MAC
d -t 0.533312034 -s 13 -d -1 -p CM7 -e 8 -c 2 -a 0 -i 0 -k MAC
d -t 0.533312042 -s 20 -d -1 -p CM7 -e 8 -c 2 -a 0 -i 0 -k MAC
+ -t 0.533376000 -s 21 -d -1 -p CM7 -e 8 -c 2 -a 0 -i 0 -k MAC 
- -t 0.533376000 -s 21 -d -1 -p CM7 -e 8 -c 2 -a 0 -i 0 -k MAC
h -t 0.533376000 -s 21 -d -1 -p CM7 -e 8 -c 2 -a 0 -i 0 -k MAC -R 15.00 -D 0.00
+ -t 0.533568000 -s 5 -d -1 -p CM7 -e 8 -c 2 -a 0 -i 0 -k MAC 
- -t 0.533568000 -s 5 -d -1 -p CM7 -e 8 -c 2 -a 0 -i 0 -k MAC
h -t 0.533568000 -s 5 -d -1 -p CM7 -e 8 -c 2 -a 0 -i 0 -k MAC -R 15.00 -D 0.00
d -t 0.533824026 -s 14 -d -1 -p CM7 -e 8 -c 2 -a 0 -i 0 -k MAC
d -t 0.533824031 -s 17 -d -1 -p CM7 -e 8 -c 2 -a 0 -i 0 -k MAC
d -t 0.533824033 -s 9 -d -1 -p CM7 -e 8 -c 2 -a 0 -i 0 -k MAC
d -t 0.533824035 -s 18 -d -1 -p CM7 -e 8 -c 2 -a 0 -i 0 -k MAC
d -t 0.533824037 -s 6 -d -1 -p CM7 -e 8 -c 2 -a 0 -i 0 -k MAC
+ -t 0.533888000 -s 13 -d -1 -p CM7 -e 8 -c 2 -a 0 -i 0 -k MAC 
- -t 0.533888000 -s 13 -d -1 -p CM7 -e 8 -c 2 -a 0 -i 0 -k MAC
h -t 0.533888000 -s 13 -d -1 -p CM7 -e 8 -c 2 -a 0 -i 0 -k MAC -R 15.00 -D 0.00